LAMMPS data file via write_data, version 17 Nov 2016, timestep = 1660305

0 atoms
1 atom types

0.0000000000000000e+00 3.4683980833100001e-01 xlo xhi
0.0000000000000000e+00 3.4683980833100001e-01 ylo yhi
0.0000000000000000e+00 3.4683980833100001e-01 zlo zhi

Masses

1 18.0153

Atoms # atomic
