LAMMPS data file via write_data, version 23 Jun 2022, timestep = 65000

0 atoms
2 atom types
0 bonds
1 bond types
0 angles
1 angle types

0.0011925034203876805 38.77133684015658 xlo xhi
0.0012908849525992139 38.77143522168862 ylo yhi
0.001460419188855866 38.77160475592497 zlo zhi

Masses

1 15.9994
2 1.008

Atoms
