LAMMPS data file via write_data, version 23 Jun 2022, timestep = 12056

0 atoms
1 atom types

0 8.7452077274435 xlo xhi
0 8.7452077274435 ylo yhi
0 8.7452077274435 zlo zhi

Masses

1 1

Atoms # atomic
